21
	Energy:     105.3958481
C         -2.09699       -1.97567        0.00000
C         -0.73379       -1.37976       -0.00000
C         -0.55690        0.01031        0.00000
C          0.73944        0.57080        0.00000
N          0.86302        1.91928       -0.00000
C          2.07633        2.51467        0.00000
C          3.23126        1.74046       -0.00000
C          3.20303        0.32403        0.00000
C          4.47486       -0.35927       -0.00000
C          5.61643        0.48514        0.00000
C          6.92372        0.01268        0.00000
C          7.15644       -1.35042        0.00000
C          6.07956       -2.22581        0.00000
C          4.74947       -1.78048       -0.00000
N          3.85007       -2.79330        0.00000
C          2.51254       -2.76150       -0.00000
O          1.74484       -3.83185       -0.00000
C          1.66556       -1.62455       -0.00000
C          0.40914       -2.16963        0.00000
O          0.49758       -3.48195        0.00000
C          1.90647       -0.26188       -0.00000
