13
	Energy:       7.7757320
O          1.56695       -1.02063        0.23690
O          1.20456        1.09543       -0.35257
N         -1.42526        1.17011        0.16167
C         -0.72278       -0.09857        0.37549
C         -1.35116       -1.21006       -0.47422
C          0.74749        0.03750        0.05706
H         -0.81480       -0.37476        1.44879
H         -0.84397       -2.17913       -0.27930
H         -2.42588       -1.32437       -0.21843
H         -1.26378       -0.97093       -1.55602
H         -2.42339        1.07200        0.45926
H         -1.40578        1.42936       -0.85228
H          2.51361       -0.96605        0.04344
