19
	Energy:      12.5027940
O          1.99855        1.52915       -1.03241
O         -3.21391        0.56114        1.09022
O          2.57320        0.71638        0.95886
O         -2.84688       -0.19166       -0.97246
N          1.56937       -1.75710        0.64220
C         -0.11899       -0.61970       -0.76027
C          1.38319       -0.79530       -0.44869
C         -0.92762       -0.07648        0.43466
C          2.02752        0.53397       -0.12040
C         -2.39332        0.08998        0.12796
H         -0.53591       -1.60642       -1.06054
H         -0.22945        0.07309       -1.62382
H          1.88076       -1.19392       -1.36137
H         -0.83164       -0.77391        1.29395
H         -0.52732        0.91504        0.73499
H          2.59279       -1.92049        0.78651
H          1.14936       -2.67504        0.36774
H          2.39858        2.39167       -0.85209
H         -4.16057        0.68450        0.93137
