30
	Energy:     103.1579769
O          1.19649        2.37774       -0.00607
O         -1.28004       -2.38025        0.00162
N          1.53400       -1.15430        0.00011
N         -1.40753        1.06107       -0.00303
C          0.77307       -0.03151       -0.00246
C          2.89501        0.62615       -0.00120
C          2.81659       -0.74441        0.00105
C         -0.70633       -0.02422       -0.00255
C          1.59709        1.09105       -0.00364
C         -2.93565       -0.66187        0.00203
C         -1.59497       -1.20129        0.00022
C         -2.77609        0.70144       -0.00023
C          4.12090        1.29208       -0.00038
C          3.95938       -1.54299        0.00430
C         -4.19200       -1.26244        0.00578
C         -3.87531        1.55847        0.00113
C          5.29092        0.51024        0.00302
C          5.21052       -0.90009        0.00535
C         -5.31804       -0.41989        0.00734
C         -5.16063        0.98415        0.00500
H          1.20770       -2.14521        0.00172
H          4.17714        2.37262       -0.00202
H          3.88752       -2.62294        0.00619
H         -4.29825       -2.33939        0.00771
H         -3.74523        2.63273       -0.00046
H          6.25957        0.99282        0.00398
H          6.11736       -1.49071        0.00808
H         -6.31092       -0.85046        0.01048
H         -6.03449        1.62253        0.00636
H          1.83161        3.10696       -0.00665
