743
	Energy:    2511.6632644
O          1.98124        0.75458       -0.57964
O         -1.72864        0.51170        1.51562
O         -1.55598       -1.13478       -1.07889
O          3.16073        1.23892        2.76644
O          4.94191       -1.37527       -0.38956
O         -3.57469       -2.72120        2.34707
O         -2.76213        0.40302        5.69966
O         -3.04171       -0.06075       -3.06767
O         -4.19271       -4.39977       -2.10111
O          3.65315        1.82325       -1.48104
O         -3.44065        1.78406        1.94062
O         -2.92566       -1.38190        0.58380
O          1.62132       -0.32212        5.84286
O          1.40849        4.02794        5.48332
O          6.65784       -3.47091       -1.41547
O          2.89124       -4.65414       -1.96323
O         -4.38717       -5.44799        1.71961
O         -1.45815       -4.41722       -1.26248
O         -5.04435        0.63366        7.37038
O         -3.05592       -1.77395        9.58477
O         -3.01845        1.48905       -5.49405
O         -1.17183        3.69616       -2.33666
O         -6.34516       -8.71272       -1.76221
O         -3.74664       -7.59661       -5.12817
O          2.32833        3.30638        2.78949
O          2.95718       -1.42920       -1.49205
O         -1.50147       -3.06100        3.13627
O         -0.99974       -0.29426        6.84804
O         -2.03162        1.25647       -1.56121
O         -6.12009       -5.49946       -2.39112
O         -0.90843       -3.14782        7.76856
O          2.66516       -4.49198        5.98662
O         -0.16350        6.79276        4.60245
O          2.99605        5.67053        7.55029
O          9.00283       -5.85961       -1.28206
O         10.18621       -2.08112       -0.00114
O          0.96274       -7.26586       -5.00800
O          1.76709       -8.30414       -0.09569
O         -5.81327       -8.32325        1.62190
O         -8.05319       -5.29334        3.96926
O          1.69266       -5.22240       -4.22907
O         -3.69868       -3.79167       -4.64220
O         -7.65224        1.28985        8.95552
O         -8.02776        2.62511        4.91002
O         -0.72589       -3.78366       12.00760
O         -5.10614       -4.48323       12.15970
O         -4.84858        2.99237       -7.18764
O         -5.20825       -1.02541       -7.93213
O          0.44096        5.66124       -1.30711
O         -3.98450        6.30296       -0.31941
O         -7.99767      -11.12467       -1.86234
O         -7.96691       -9.19871        2.02903
O         -1.04450      -10.71194       -6.55475
O         -4.83944       -9.46358       -7.95785
O          1.32668       -2.29057        4.81545
O          3.50666        4.32761        4.79338
O          7.63444       -1.77492       -0.35973
O          3.60126       -6.61176       -1.20764
O         -5.57168       -4.36972        3.26579
O         -2.29956       -2.83447       -2.52716
O         -5.72905        2.53863        6.39983
O         -2.52858       -1.90280       11.74575
O         -3.61038       -0.65171       -5.79062
O         -3.20388        3.58041       -1.46324
O         -7.82307       -7.04507       -1.58378
O         -3.08191       -9.71901       -4.81559
O         -1.22841       -2.64146        5.62882
O          1.52633       -4.77357        4.07500
O         -0.51675        5.39309        6.33247
O          1.29626        4.52727        8.47955
O          7.50498       -5.29565       -2.83454
O         10.73365       -1.73428       -2.15513
O         -0.74016       -6.17687       -5.89452
O          3.90083       -8.86365        0.20395
O         -3.68127       -8.35636        0.96433
O         -9.93712       -6.26396        4.70453
O          3.60217       -4.73578       -5.38716
O         -4.83203       -5.30446       -5.82682
O         -6.48258       -0.06365       10.30758
O         -7.43613        4.68704        5.57676
O          1.25372       -4.72657       11.53339
O         -5.54599       -2.34729       11.67196
O         -3.69917        4.38298       -5.86249
O         -4.41472       -0.50476       -9.95587
O          1.77272        3.86320       -1.11049
O         -5.20213        4.45237       -0.09263
O         -7.18935      -10.36084       -3.80559
O         -8.58237      -10.87533        3.36039
O          0.01604      -10.17785       -4.66086
O         -5.94242      -11.36145       -8.28849
O         -1.58716       -5.80801        7.46903
O         -4.43906       -2.15106        7.35063
O          5.36093       -4.78437        5.48844
O          2.49218       -7.81539        5.09084
O         -2.39656        8.31787        6.88952
O         -2.36908        8.43904        4.20415
O          5.34715        5.17539        8.86721
O          2.01341        3.62000       11.04285
O         11.49014       -5.72099       -2.52699
O          8.48297       -8.53243       -3.55552
O         11.01592        0.20164        1.43966
O         12.11689        0.65013       -2.63084
O         -0.02010       -7.75903       -9.11955
O         -0.30944       -3.97017       -7.59219
O          0.37588       -9.21763        2.16254
O          2.10769      -11.62431       -0.84161
O         -6.19824      -12.14786        0.65493
O         -2.76700      -10.32818       -0.60049
O        -10.06808       -3.07144        6.01161
O         -9.79110       -7.04477        7.39075
O          4.95503       -6.84006       -6.92405
O          5.43274       -6.75710       -2.80456
O         -7.48324       -3.31132       -7.25639
O         -7.35108       -5.74606       -6.34183
O         -8.09577        3.74811        9.88679
O         -7.66258        0.76081       12.84524
O         -8.98166        2.86290        2.23854
O         -9.55971        5.36838        3.07169
O          1.15103       -4.06274       14.95780
O          3.36549       -2.89289       11.54449
O         -7.41181       -5.86569       10.81997
O         -7.24388       -3.68773       14.43868
O         -4.85947        3.98725       -9.77426
O         -2.76591        6.64069       -7.20344
O         -5.59561       -4.32609       -8.29978
O         -4.77536       -2.40799      -11.83327
O          2.19832        7.76883       -2.40326
O          4.88778        5.83248       -3.10215
O         -7.29237        7.11292       -0.48456
O         -4.19569        6.73652       -3.34679
O         -8.48637      -13.91556       -2.28497
O         -6.88056      -12.20738       -5.79133
O         -6.22109       -7.19721        4.55402
O         -8.83007      -10.23597        6.00852
O          0.90306      -12.69924       -7.76463
O          2.13457      -11.71342       -3.87072
O         -5.32300       -7.92584      -10.34083
O         -7.42725      -11.56173      -10.47409
C          0.30137       -0.55072        0.67229
C          1.53090       -1.28724        1.26096
C          0.88476        0.84755        0.26727
C         -0.71586       -0.36341        1.79834
C         -0.31139       -1.43464       -0.49530
C          1.51293       -2.70270        1.76388
C          4.40687        0.86614        0.57223
C         -3.51435       -0.16608        3.35787
C         -4.17349       -1.56786       -1.36862
C          3.28252        1.20801       -0.49240
C         -2.85690        0.75749        2.25046
C         -2.82627       -1.40025       -0.55823
C          4.26286        1.56680        1.97420
C          4.69833       -0.65984        0.77609
C         -4.19044       -1.53191        2.84395
C         -2.64750       -0.46131        4.60502
C         -4.19330       -0.31597       -2.31676
C         -4.72714       -3.03816       -2.02322
C          5.75742        1.43389        0.01210
C         -4.72304        0.64567        3.87773
C         -5.35946       -1.23048       -0.40260
C          1.24514        1.88654        4.36585
C          4.64339       -2.57118       -2.52955
C         -2.11652       -4.61844        1.44676
C         -2.65888        0.59409        8.26072
C         -1.30562        1.68769       -3.75931
C         -4.42260       -7.07501       -2.74146
C          2.31354        2.18483        3.28215
C          4.11562       -1.77373       -1.40316
C         -2.33660       -3.33791        2.29860
C         -2.11707        0.16244        6.88941
C         -2.15329        0.93773       -2.73446
C         -4.92290       -5.58571       -2.40666
C          1.11366        0.34835        4.71319
C          1.48067        2.65993        5.65498
C          6.18167       -2.72579       -2.47774
C          3.91263       -3.97931       -2.69557
C         -3.09200       -5.61034        2.13142
C         -2.40766       -4.49861       -0.14949
C         -4.03836        1.28667        8.07967
C         -2.55164       -0.45085        9.50509
C         -1.67690        1.25324       -5.20075
C         -1.54172        3.21661       -3.59809
C         -5.03290       -8.19428       -1.80833
C         -4.77566       -7.61292       -4.18310
C         -0.09872        2.42726        3.77011
C          4.43825       -1.68490       -3.81967
C         -0.75091       -5.26040        1.67710
C         -1.70442        1.74823        8.71719
C          0.19329        1.40191       -3.52320
C         -2.90101       -7.20494       -2.47965
C          1.53114       -2.61525        7.14541
C          2.33473        6.32865        5.31744
C          8.54316       -3.88260        0.20828
C          1.37218       -6.93981       -2.15461
C         -6.75697       -5.82026        1.88526
C         -0.96733       -3.82778       -4.00931
C         -7.44718        0.91956        6.57694
C         -2.93603       -4.12772       11.02249
C         -5.36448        0.86435       -6.21841
C         -1.78405        5.06591       -0.28142
C         -8.62389       -9.09495       -0.61133
C         -2.71096       -8.95251       -7.01814
C          1.47310       -1.71233        5.87830
C          2.43460        4.82557        5.11980
C          7.58136       -2.98218       -0.55529
C          2.74326       -6.05746       -1.86900
C         -5.49923       -5.28953        2.47822
C         -1.50287       -3.68998       -2.49331
C         -6.00013        1.39072        6.72971
C         -2.87550       -2.53460       10.75578
C         -3.92832        0.52793       -5.82895
C         -2.08268        4.04995       -1.38684
C         -7.55085       -8.20976       -1.35155
C         -3.16518       -8.76062       -5.57309
C          0.28986       -2.47111        8.11039
C          1.58487       -4.13501        6.77915
C          1.21231        7.00098        4.42798
C          2.21200        6.59248        6.84680
C          8.37652       -5.41425       -0.11499
C         10.01279       -3.45809       -0.10346
C          0.47872       -7.20820       -3.60976
C          1.37102       -8.35293       -1.42501
C         -6.36655       -7.10728        1.07725
C         -7.98333       -6.09197        2.83314
C          0.74582       -4.09595       -4.33654
C         -2.35405       -4.37099       -4.85508
C         -7.89779        0.36668        7.94813
C         -8.36787        2.11470        6.16166
C         -1.45063       -4.58303       11.15981
C         -3.72657       -4.41302       12.33699
C         -5.62399        2.39098       -6.22738
C         -5.68528        0.27009       -7.64734
C         -0.25864        5.39921       -0.13589
C         -2.61038        6.36233       -0.58284
C         -9.00765      -10.19303       -1.64936
C         -8.23607       -9.83407        0.77434
C         -1.24209       -9.45295       -7.08209
C         -3.60190      -10.00612       -7.69635
C          2.81268       -2.23463        7.90995
C          3.67768        6.95998        4.84683
C          8.22967       -3.66010        1.70604
C          0.48678       -6.13340       -1.26020
C         -7.22710       -4.72036        0.88865
C         -0.96611       -2.35517       -4.58508
C         -7.60067       -0.19539        5.52353
C         -3.52238       -5.20128       10.05579
C         -6.31889        0.33484       -5.13408
C         -2.17044        4.49220        1.10271
C         -9.89373       -8.25571       -0.33526
C         -2.86136       -7.63335       -7.81129
C         -2.99967       -3.97281        6.54685
C          3.64801       -5.82603        4.10914
C         -2.48674        6.33212        5.45287
C          3.43736        3.66979        9.05753
C          9.45368       -6.29672       -3.71548
C         10.41346        0.26186       -0.91289
C          0.92143       -6.12154       -7.57444
C          2.32388      -10.34692        1.22607
C         -4.33730      -10.58241        1.28127
C         -8.74688       -5.06153        6.38814
C          3.86207       -7.05068       -4.72514
C         -6.55347       -3.80713       -4.99441
C         -6.68757        2.16687       11.10191
C         -7.34188        4.37282        3.22636
C          1.32955       -2.76572       12.89830
C         -7.47512       -3.72910       12.00809
C         -3.07233        4.41012       -8.15766
C         -4.12821       -2.80519       -9.49427
C          2.50444        5.37289       -2.75868
C         -5.88946        5.75132       -1.92119
C         -6.71122      -12.65775       -3.39484
C         -6.96556       -9.57796        4.55575
C          0.35601      -12.41524       -5.38885
C         -6.92394       -9.45373       -9.31410
C         -1.67346       -3.15669        6.62684
C          2.55084       -4.96693        4.71267
C         -0.97159        6.12881        5.47821
C          2.50486        4.64982        8.32878
C          8.58690       -5.76901       -2.57580
C         10.47902       -1.25782       -1.05613
C          0.37952       -6.54966       -6.09839
C          2.72394       -9.11170        0.42247
C         -4.64743       -9.01907        1.27391
C         -8.96919       -5.55522        4.95406
C          2.99369       -5.60824       -4.78461
C         -4.95257       -4.31385       -5.13426
C         -6.89751        1.06154       10.06973
C         -7.61277        3.90142        4.65408
C          0.62463       -3.84453       12.10636
C         -5.96917       -3.47454       11.87720
C         -3.90263        3.93632       -6.98305
C         -4.59629       -1.37445       -9.11404
C          1.53729        4.92448       -1.67343
C         -4.95166        5.44387       -0.76024
C         -7.31108      -11.29746       -3.02754
C         -7.87514       -9.88323        3.25245
C         -0.21598      -11.01209       -5.52166
C         -5.86664      -10.15753       -8.48135
C         -2.63593       -5.49482        6.59001
C         -4.04685       -3.48709        7.56803
C          5.00518       -5.08175        4.16430
C          3.72688       -7.15075        4.92865
C         -2.93394        7.02626        6.76773
C         -2.96679        7.17140        4.23375
C          4.90352        3.87036        8.60038
C          3.30927        3.90913       10.57973
C         10.79134       -5.52860       -3.72696
C          9.69136       -7.81492       -3.52187
C         10.04506        0.66377        0.53752
C         11.77588        0.90241       -1.29050
C          1.16824       -7.33283       -8.52600
C         -0.09207       -5.15824       -8.31030
C          1.53394       -9.93784        2.49025
C          1.44376      -11.26528        0.34238
C         -5.42462      -11.63754        1.70810
C         -3.88609      -11.03239       -0.13723
C         -8.80526       -3.52236        6.42350
C         -9.81263       -5.63923        7.36752
C          4.09678       -7.63811       -6.15026
C          5.32530       -6.85664       -4.19578
C         -6.93800       -2.76811       -6.09160
C         -7.53553       -5.03915       -5.14301
C         -6.81720        3.56082       10.43486
C         -7.74838        2.01241       12.21711
C         -7.63845        3.26048        2.18591
C         -8.18923        5.63412        2.92418
C          0.83094       -2.83148       14.36140
C          2.87266       -2.93407       12.86004
C         -8.02288       -4.60257       10.85067
C         -7.73562       -4.44057       13.35989
C         -3.51946        3.69095       -9.46171
C         -3.23515        5.93958       -8.32806
C         -4.27569       -3.89519       -8.40728
C         -4.93038       -3.27606      -10.74355
C          2.10293        6.74239       -3.35853
C          3.93138        5.45876       -2.14368
C         -7.30640        6.00700       -1.34702
C         -5.43229        6.98317       -2.73458
C         -7.09248      -13.74147       -2.35437
C         -7.25417      -13.10102       -4.77830
C         -5.80160       -8.51546        4.55864
C         -7.91738       -9.20915        5.72207
C          0.14210      -13.22107       -6.70224
C          1.88046      -12.36835       -5.08485
C         -6.52848       -7.98163       -9.62093
C         -7.08982      -10.21092      -10.66110
C         -3.80816       -3.84592        5.28173
C          3.34950       -6.13952        2.61540
C         -3.15280        4.93956        5.38556
C          3.07010        2.18569        8.78351
C          8.78205       -6.07141       -5.09708
C          9.31611        0.80337       -1.85873
C          2.19040       -5.24878       -7.63567
C          3.58293      -11.12108        1.68507
C         -3.13496      -10.78449        2.24002
C         -7.35372       -5.50666        6.86715
C          3.37258       -8.31780       -3.95319
C         -7.16027       -3.11833       -3.70041
C         -5.27458        2.07662       11.73955
C         -5.85710        4.76279        3.11220
C          0.94868       -1.39681       12.29250
C         -8.24992       -2.39417       11.98432
C         -1.59585        4.05393       -7.89788
C         -2.62091       -2.74529       -9.81192
C          2.48332        4.31144       -3.87601
C         -5.95826        4.51981       -2.85636
C         -5.17014      -12.56397       -3.45475
C         -6.20522      -10.87059        4.99921
C         -0.38931      -13.11980       -4.24095
C         -8.24173       -9.43869       -8.51789
H          2.24509       -1.34691        0.49563
H          1.98470       -0.67409        2.02340
H          1.18868        1.41527        1.15480
H          0.09699        1.44302       -0.22871
H         -1.09931       -1.30660        2.01009
H         -0.23638       -0.02313        2.68347
H          0.43423       -1.49234       -1.31487
H         -0.40037       -2.46874       -0.11444
H          1.46334       -3.36595        0.88574
H          2.48856       -2.93148        2.24524
H          0.72645       -2.84977        2.50917
H          5.16034        1.30594        2.58083
H          4.33365        2.66526        1.81883
H          5.62833       -0.73888        1.38215
H          4.02237       -1.19985        1.43523
H         -4.93936       -1.86030        3.57495
H         -4.87681       -1.18833        2.07817
H         -3.05138       -1.36843        5.01654
H         -1.63901       -0.71036        4.29635
H         -5.06413       -0.37958       -2.96400
H         -4.37216        0.60265       -1.70664
H         -5.72728       -3.19564       -1.60850
H         -4.83823       -2.72322       -3.05024
H          6.00843        0.97946       -0.97071
H          5.70938        2.53692       -0.12129
H          6.61358        1.22973        0.69448
H         -4.40739        1.63860        4.26887
H         -5.47163        0.82016        3.07624
H         -5.18826        0.08338        4.69411
H         -5.51180       -2.06391        0.31164
H         -5.20918       -0.27098        0.13979
H         -6.31556       -1.11923       -0.96277
H          0.05304        0.20866        4.82739
H          1.44183       -0.19085        3.84812
H          0.70856        2.37724        6.40454
H          2.47195        2.37799        6.01679
H          6.51415       -3.21477       -3.41724
H          6.65817       -1.71681       -2.50740
H          3.25873       -3.62577       -3.46596
H          4.61987       -4.65596       -3.15828
H         -2.78851       -6.60474        1.83437
H         -2.99963       -5.67584        3.22917
H         -2.90117       -5.45436       -0.33838
H         -3.22373       -3.79035       -0.20073
H         -4.43957        1.58809        9.05082
H         -3.81204        2.23934        7.55377
H         -1.46499       -0.56665        9.70533
H         -2.96318        0.10213       10.37793
H         -1.05443        1.81858       -5.92078
H         -1.41177        0.19062       -5.34369
H         -0.96765        3.78435       -4.36111
H         -2.61343        3.42689       -3.79658
H         -4.43992       -9.09696       -2.04231
H         -4.72591       -7.92114       -0.85993
H         -5.10727       -8.67528       -4.12068
H         -5.70439       -7.16600       -4.56750
H         -0.96569        2.21128        4.42882
H         -0.07265        3.52776        3.61889
H         -0.29909        2.05284        2.76247
H          3.36343       -1.46350       -4.00479
H          4.95790       -0.70444       -3.73385
H          4.82524       -2.20271       -4.72532
H         -0.01666       -4.65972        1.17972
H         -0.51542       -5.36389        2.75583
H         -0.70500       -6.27612        1.23343
H         -0.66044        1.39085        8.85431
H         -1.65653        2.57228        7.97061
H         -2.04190        2.18899        9.68160
H          0.51992        1.75575       -2.52665
H          0.41786        0.32239       -3.58678
H          0.81260        1.91738       -4.28644
H         -2.32569       -6.40796       -2.93119
H         -2.67089       -7.18559       -1.40458
H         -2.50086       -8.18166       -2.81959
H          0.57837       -2.93047        9.07935
H          0.13586       -1.42246        8.39615
H          1.63074       -4.74639        7.70670
H          0.64101       -4.41575        6.27219
H          1.34463        8.10172        4.50522
H          1.43330        6.73867        3.36934
H          2.50307        7.63333        7.10185
H          1.17778        6.53323        7.19273
H          8.90535       -5.96010        0.69519
H          7.31636       -5.74753       -0.06491
H         10.72567       -3.97818        0.57168
H         10.25270       -3.78568       -1.13399
H         -0.19785       -8.06682       -3.45467
H         -0.27536       -6.40837       -3.60220
H          0.32334       -8.72880       -1.40298
H          1.90137       -9.15715       -1.96054
H         -7.35291       -7.34284        0.74012
H         -5.76435       -6.72080        0.25844
H         -8.94073       -6.04875        2.26629
H         -7.95520       -7.13270        3.16723
H          0.88693       -3.77732       -5.37870
H          1.22242       -3.29520       -3.74242
H         -2.15889       -4.27472       -5.94038
H         -2.48041       -5.43381       -4.67588
H         -8.98241        0.12703        7.92177
H         -7.36067       -0.58763        8.14696
H         -9.42443        1.77626        6.11430
H         -8.31729        2.90262        6.94524
H         -1.35967       -5.64678       11.48124
H         -0.98680       -4.50509       10.14914
H         -3.43723       -5.42994       12.68667
H         -3.46093       -3.72771       13.16561
H         -6.69075        2.59736       -6.46554
H         -5.42263        2.81733       -5.21905
H         -6.78613        0.29178       -7.79749
H         -5.26767        0.96821       -8.39559
H         -0.13570        6.26868        0.54799
H          0.22514        4.55939        0.41063
H         -2.23236        7.17529        0.07325
H         -2.41868        6.69329       -1.62325
H         -9.89312      -10.75887       -1.28880
H         -9.31449       -9.71114       -2.60629
H         -9.03724      -10.58260        0.95554
H         -7.32748      -10.32407        0.49168
H         -0.96465       -9.56404       -8.14308
H         -0.56253       -8.73168       -6.61801
H         -3.16044      -10.29732       -8.67599
H         -3.67743      -10.91682       -7.06211
H          3.71061       -2.37414        7.27064
H          2.77195       -1.17290        8.23686
H          2.93383       -2.86938        8.81395
H          4.54320        6.55200        5.41192
H          3.84586        6.76084        3.76360
H          3.67170        8.06208        4.98723
H          8.36101       -2.59394        1.99436
H          7.17916       -3.95171        1.92886
H          8.90240       -4.26629        2.34871
H         -0.52372       -6.57221       -1.17991
H          0.91341       -6.04219       -0.24122
H          0.51334       -5.12235       -1.69293
H         -7.48934       -3.77793        1.41713
H         -6.43031       -4.48448        0.15352
H         -8.11715       -5.04932        0.30963
H         -1.95184       -1.86409       -4.54476
H         -0.27114       -1.70779       -4.01869
H         -0.69261       -2.31337       -5.65998
H         -7.36842        0.17286        4.50365
H         -6.94151       -1.05684        5.75756
H         -8.65147       -0.54907        5.48525
H         -3.45608       -6.22607       10.48788
H         -4.58939       -5.03607        9.80115
H         -2.92559       -5.30218        9.16264
H         -6.09238       -0.69477       -4.87845
H         -6.21125        0.91905       -4.19408
H         -7.38366        0.43467       -5.43512
H         -3.24086        4.25912        1.19666
H         -1.61125        3.55338        1.30035
H         -1.90809        5.20560        1.90467
H        -10.70035       -8.88660        0.09561
H         -9.67865       -7.43795        0.38253
H        -10.28281       -7.80118       -1.27297
H         -2.54913       -7.75346       -8.87047
H         -3.90355       -7.25487       -7.80368
H         -2.28808       -6.84092       -7.35048
H         -3.53392       -6.11230        6.81733
H         -2.32763       -5.81935        5.56334
H         -4.93877       -4.15524        7.57181
H         -3.61799       -3.51873        8.50315
H          5.79499       -5.72544        3.71389
H          4.92998       -4.13472        3.58225
H          4.45448       -7.84632        4.45821
H          4.08734       -6.91947        5.95247
H         -4.04212        7.11954        6.78401
H         -2.66140        6.41895        7.66060
H         -2.71962        6.63714        3.29802
H         -4.07223        7.29463        4.28083
H          5.57607        3.15138        9.11687
H          4.96271        3.64740        7.50464
H          4.01561        3.24657       11.12417
H          3.59461        4.95397       10.83867
H         11.42315       -5.88291       -4.57126
H         10.57190       -4.44366       -3.87564
H         10.33884       -8.20259       -4.33722
H         10.22835       -8.02270       -2.56873
H          9.97465        1.77157        0.62008
H          9.04869        0.23272        0.79256
H         11.72388        2.00539       -1.16119
H         12.58372        0.54819       -0.60864
H          1.83374       -7.00914       -9.36336
H          1.65355       -8.18447       -8.02060
H          0.27168       -4.91157       -9.33953
H         -1.07002       -5.60967       -8.50586
H          1.24915      -10.85209        3.06114
H          2.19153       -9.31206        3.12315
H          1.12817      -12.17470        0.90465
H          0.50300      -10.74653        0.05885
H         -4.92130      -12.54273        2.11703
H         -6.05789      -11.23942        2.47617
H         -3.64355      -12.12110       -0.13376
H         -4.74473      -10.86581       -0.82093
H         -8.59728       -3.17718        7.46541
H         -8.02975       -3.10526        5.74806
H         -9.66087       -5.24129        8.39764
H        -10.83238       -5.32111        7.06564
H          4.58176       -8.64491       -6.09680
H          3.12918       -7.81067       -6.62432
H          5.96428       -7.72268       -4.50243
H          5.78418       -5.96666       -4.66639
H         -7.73001       -2.05363       -5.75575
H         -6.02235       -2.22405       -6.28248
H         -7.42978       -5.75657       -4.31219
H         -8.59849       -4.68953       -5.08126
H         -6.63167        4.36024       11.18504
H         -6.04255        3.64014        9.63377
H         -7.65046        2.82730       12.97101
H         -8.76838        2.10528       11.78726
H         -7.40826        3.64208        1.16597
H         -6.99230        2.38056        2.38572
H         -7.87567        6.45278        3.61731
H         -7.99739        5.98863        1.88927
H          1.29868       -2.02291       14.96124
H         -0.27062       -2.65923       14.41566
H          3.36618       -2.14989       13.48008
H          3.16602       -3.90948       13.30330
H         -9.12766       -4.71561       10.98974
H         -7.86015       -4.09412        9.87641
H         -8.82411       -4.60277       13.51027
H         -7.27460       -5.45696       13.36800
H         -2.88687        4.00634      -10.31746
H         -3.37173        2.58733       -9.35217
H         -2.65642        6.28427       -9.21031
H         -4.30177        6.19768       -8.53064
H         -3.66452       -4.78433       -8.70401
H         -3.88489       -3.53299       -7.43812
H         -4.65502       -4.31764      -11.03362
H         -6.01712       -3.31007      -10.49998
H          2.78321        7.00137       -4.19865
H          1.07804        6.69462       -3.79619
H          3.95634        6.20478       -1.32007
H          4.22317        4.49073       -1.67040
H         -8.01731        6.19598       -2.18312
H         -7.65789        5.11129       -0.78543
H         -6.19424        7.18620       -3.52277
H         -5.35065        7.87301       -2.07283
H         -6.64034      -14.71818       -2.63265
H         -6.67157      -13.48944       -1.35795
H         -6.89706      -14.12626       -5.03423
H         -8.36347      -13.15335       -4.75951