 240
C240 (Ih sym.) calculated at HF/STO-3G level (Energy -8979.72332073 a.u.)
C          -1.159871        -6.292640        -3.567668
C           0.000000        -5.915776        -4.321397
C           1.159871        -6.292640        -3.567668
C           0.716839        -6.902420        -2.348108
C          -0.716839        -6.902420        -2.348108
C          -6.343076        -0.841430        -3.567668
C          -5.626237        -1.828075        -4.321397
C          -5.626237        -3.047635        -3.567668
C          -6.343076        -2.814720        -2.348108
C          -6.786107        -1.451210        -2.348108
C           0.716839         0.986645        -7.223818
C           1.159871        -0.376865        -7.223818
C           0.000000        -1.219560        -7.223818
C          -1.159871        -0.376865        -7.223818
C          -0.716839         0.986645        -7.223818
C           6.786107        -1.451210        -2.348108
C           6.343076        -2.814720        -2.348108
C           5.626237        -3.047635        -3.567668
C           5.626237        -1.828075        -4.321397
C           6.343076        -0.841430        -3.567668
C           3.477206        -4.785963         4.321397
C           2.760366        -5.772608         3.567668
C           3.477206        -6.005523         2.348108
C           4.637076        -5.162828         2.348108
C           4.637076        -4.409098         3.567668
C          -4.637076        -4.409098         3.567668
C          -4.637076        -5.162828         2.348108
C          -3.477206        -6.005523         2.348108
C          -2.760366        -5.772608         3.567668
C          -3.477206        -4.785963         4.321397
C           1.159871         6.292640         3.567668
C           0.716839         6.902420         2.348108
C          -0.716839         6.902420         2.348108
C          -1.159871         6.292640         3.567668
C           0.000000         5.915776         4.321397
C           6.786107         1.451210         2.348108
C           6.343076         2.814720         2.348108
C           5.626237         3.047635         3.567668
C           5.626237         1.828075         4.321397
C           6.343076         0.841430         3.567668
C           3.477206         4.785963        -4.321397
C           2.760366         5.772608        -3.567668
C           3.477206         6.005523        -2.348108
C           4.637076         5.162828        -2.348108
C           4.637076         4.409098        -3.567668
C          -4.637076         4.409098        -3.567668
C          -4.637076         5.162828        -2.348108
C          -3.477206         6.005523        -2.348108
C          -2.760366         5.772608        -3.567668
C          -3.477206         4.785963        -4.321397
C          -6.343076         0.841430         3.567668
C          -5.626237         1.828075         4.321397
C          -5.626237         3.047635         3.567668
C          -6.343076         2.814720         2.348108
C          -6.786107         1.451210         2.348108
C           0.716839        -0.986645         7.223818
C           1.159871         0.376865         7.223818
C           0.000000         1.219560         7.223818
C          -1.159871         0.376865         7.223818
C          -0.716839        -0.986645         7.223818
C          -2.423341         2.133410         6.157911
C          -1.280140         2.963994         6.157911
C          -1.280140         4.182264         5.404978
C          -2.423341         4.553713         4.662081
C          -3.581985         3.711909         4.662081
C          -3.581985         2.509876         5.404978
C          -5.079692         4.571293         1.282145
C          -4.373155         4.800861         2.484177
C          -3.214511         5.642665         2.484177
C          -2.777847         6.243681         1.282145
C          -3.493928         6.011012         0.063874
C          -4.637129         5.180428         0.063874
C          -0.716081         6.454454        -2.484177
C          -1.422618         6.684022        -1.282145
C          -0.706537         6.916690        -0.063874
C           0.706537         6.916690        -0.063874
C           1.422618         6.684022        -1.282145
C           0.716081         6.454454        -2.484177
C           4.637129         5.180428         0.063874
C           3.493928         6.011012         0.063874
C           2.777847         6.243681         1.282145
C           3.214511         5.642665         2.484177
C           4.373155         4.800861         2.484177
C           5.079692         4.571293         1.282145
C           3.581985         2.509876         5.404978
C           3.581985         3.711909         4.662081
C           2.423341         4.553713         4.662081
C           1.280140         4.182264         5.404978
C           1.280140         2.963994         6.157911
C           2.423341         2.133410         6.157911
C          -2.423341        -2.133410        -6.157911
C          -1.280140        -2.963994        -6.157911
C          -1.280140        -4.182264        -5.404978
C          -2.423341        -4.553713        -4.662081
C          -3.581985        -3.711909        -4.662081
C          -3.581985        -2.509876        -5.404978
C          -5.079692        -4.571293        -1.282145
C          -4.373155        -4.800861        -2.484177
C          -3.214511        -5.642665        -2.484177
C          -2.777847        -6.243681        -1.282145
C          -3.493928        -6.011012        -0.063874
C          -4.637129        -5.180428        -0.063874
C          -0.716081        -6.454454         2.484177
C          -1.422618        -6.684022         1.282145
C          -0.706537        -6.916690         0.063874
C           0.706537        -6.916690         0.063874
C           1.422618        -6.684022         1.282145
C           0.716081        -6.454454         2.484177
C           4.637129        -5.180428        -0.063874
C           3.493928        -6.011012        -0.063874
C           2.777847        -6.243681        -1.282145
C           3.214511        -5.642665        -2.484177
C           4.373155        -4.800861        -2.484177
C           5.079692        -4.571293        -1.282145
C           3.581985        -2.509876        -5.404978
C           3.581985        -3.711909        -4.662081
C           2.423341        -4.553713        -4.662081
C           1.280140        -4.182264        -5.404978
C           1.280140        -2.963994        -6.157911
C           2.423341        -2.133410        -6.157911
C           0.706537        -3.150369         6.157911
C          -0.706537        -3.150369         6.157911
C          -1.422618        -4.135970         5.404978
C          -0.716081        -5.108435         4.662081
C           0.716081        -5.108435         4.662081
C           1.422618        -4.135970         5.404978
C           3.214511        -0.301561         6.157911
C           2.777847        -1.645474         6.157911
C           3.493928        -2.631076         5.404978
C           4.637129        -2.259627         4.662081
C           5.079692        -0.897559         4.662081
C           4.373155         0.074905         5.404978
C           6.796495        -0.712486         1.282145
C           6.359832        -1.313502         2.484177
C           5.917269        -2.675570         2.484177
C           5.917269        -3.418467         1.282145
C           6.359832        -2.809332         0.063874
C           6.796495        -1.465418         0.063874
C           6.359832         2.809332        -0.063874
C           6.796495         1.465418        -0.063874
C           6.796495         0.712486        -1.282145
C           6.359832         1.313502        -2.484177
C           5.917269         2.675570        -2.484177
C           5.917269         3.418467        -1.282145
C           3.493928         2.631076        -5.404978
C           4.637129         2.259627        -4.662081
C           5.079692         0.897559        -4.662081
C           4.373155        -0.074905        -5.404978
C           3.214511         0.301561        -6.157911
C           2.777847         1.645474        -6.157911
C           0.716081         5.108435        -4.662081
C           1.422618         4.135970        -5.404978
C           0.706537         3.150369        -6.157911
C          -0.706537         3.150369        -6.157911
C          -1.422618         4.135970        -5.404978
C          -0.716081         5.108435        -4.662081
C          -4.637129         2.259627        -4.662081
C          -3.493928         2.631076        -5.404978
C          -2.777847         1.645474        -6.157911
C          -3.214511         0.301561        -6.157911
C          -4.373155        -0.074905        -5.404978
C          -5.079692         0.897559        -4.662081
C          -5.917269         3.418467        -1.282145
C          -5.917269         2.675570        -2.484177
C          -6.359832         1.313502        -2.484177
C          -6.796495         0.712486        -1.282145
C          -6.796495         1.465418        -0.063874
C          -6.359832         2.809332        -0.063874
C          -6.359832        -1.313502         2.484177
C          -6.796495        -0.712486         1.282145
C          -6.796495        -1.465418         0.063874
C          -6.359832        -2.809332         0.063874
C          -5.917269        -3.418467         1.282145
C          -5.917269        -2.675570         2.484177
C          -2.777847        -1.645474         6.157911
C          -3.214511        -0.301561         6.157911
C          -4.373155         0.074905         5.404978
C          -5.079692        -0.897559         4.662081
C          -4.637129        -2.259627         4.662081
C          -3.493928        -2.631076         5.404978
C          -2.335279         5.596143         3.646412
C          -4.600607         3.950286         3.646412
C          -4.600607         1.494828         5.163968
C          -2.335279         0.758778         6.636067
C           0.000000         2.455458         6.636067
C           0.000000         4.837365         5.163968
C          -1.443282         6.823872         1.190953
C          -2.843332         6.368969        -1.190953
C          -5.178611         4.672289        -1.190953
C          -6.043889         3.481335         1.190953
C           1.443282         6.823872         1.190953
C           2.843332         6.368969        -1.190953
C           1.400050         5.900018        -3.646412
C          -1.400050         5.900018        -3.646412
C           2.335279         5.596143         3.646412
C           4.600607         3.950286         3.646412
C           6.043889         3.481335         1.190953
C           5.178611         4.672289        -1.190953
C           2.335279         0.758778         6.636067
C           4.600607         1.494828         5.163968
C          -2.335279        -5.596143        -3.646412
C          -4.600607        -3.950286        -3.646412
C          -4.600607        -1.494828        -5.163968
C          -2.335279        -0.758778        -6.636067
C           0.000000        -2.455458        -6.636067
C           0.000000        -4.837365        -5.163968
C          -1.443282        -6.823872        -1.190953
C          -2.843332        -6.368969         1.190953
C          -5.178611        -4.672289         1.190953
C          -6.043889        -3.481335        -1.190953
C           1.443282        -6.823872        -1.190953
C           2.843332        -6.368969         1.190953
C           1.400050        -5.900018         3.646412
C          -1.400050        -5.900018         3.646412
C           2.335279        -5.596143        -3.646412
C           4.600607        -3.950286        -3.646412
C           6.043889        -3.481335        -1.190953
C           5.178611        -4.672289         1.190953
C           2.335279        -0.758778        -6.636067
C           4.600607        -1.494828        -5.163968
C           2.843332        -3.913510         5.163968
C           1.443282        -1.986507         6.636067
C          -1.443282        -1.986507         6.636067
C          -2.843332        -3.913510         5.163968
C           5.178611        -3.154732         3.646412
C           6.043889        -0.491679         3.646412
C           6.935887        -0.736050        -1.190953
C           6.935887         0.736050         1.190953
C           6.043889         0.491679        -3.646412
C           5.178611         3.154732        -3.646412
C           1.443282         1.986507        -6.636067
C           2.843332         3.913510        -5.163968
C          -1.443282         1.986507        -6.636067
C          -2.843332         3.913510        -5.163968
C          -6.043889         0.491679        -3.646412
C          -5.178611         3.154732        -3.646412
C          -6.935887        -0.736050        -1.190953
C          -6.935887         0.736050         1.190953
C          -5.178611        -3.154732         3.646412
C          -6.043889        -0.491679         3.646412
