196
	Energy:     417.2095636
O          0.74397       -8.56179       -2.09861
O          3.82355      -10.75166       -3.40119
O          3.92642      -14.95740       -4.00229
O         -0.24454      -16.49906       -4.09848
O          2.49106       -7.04829       -0.34809
O         -0.93063      -14.99207        1.03881
O          0.98080       -8.75362        2.40018
O          6.52215       -5.54863        0.80196
O         -0.53421       -5.08278        5.00269
O         -3.47498      -10.89660        3.31738
O          3.21340       -3.47912        2.95440
O         -1.85166      -10.19724       -1.85487
N          4.40586      -13.21657       -2.69384
N          3.33631       -9.77050       -1.44659
N          1.61494      -15.83499       -3.02605
N         -0.87778      -15.08811       -1.19648
N          4.38263       -6.40921       -1.38557
N         -1.21668       -8.83456        2.00067
N         -0.69039       -7.28253        4.75427
N          2.13281       -4.81594        4.40416
N          4.62463       -5.74644        1.96451
N         -0.91913      -11.84605       -0.69877
N         -3.45219      -11.18924        1.14908
C          4.13553      -12.25264       -1.59303
C          2.40661      -14.88571       -2.19176
C          3.16521       -8.46875       -2.14346
C          5.36519      -12.09882       -0.58623
C          1.83860       -8.46942       -2.96765
C          2.66801      -15.46473       -0.76756
C          1.63774       -7.29263       -3.97594
C          3.73483      -10.87404       -2.18635
C          3.64597      -14.35070       -2.97625
C         -0.74916      -14.74535       -2.64640
C          3.40320      -16.82176       -0.59046
C          0.26163      -15.70657       -3.30930
C         -0.59601      -13.29774       -3.15784
C          3.32282       -7.25647       -1.21331
C          0.55001       -7.61587       -5.03826
C          6.60694      -11.34781       -1.10803
C          5.82581      -13.43111       -0.00020
C         -0.55642      -13.13748       -4.70408
C          5.48566      -12.92893       -3.64924
C          1.31781       -5.94008       -3.31429
C          3.07083       -9.85391       -0.01400
C          2.25924      -17.01954       -3.61105
C          4.87802      -16.79076       -1.01302
C          3.32451      -17.25574        0.88189
C          4.71138       -5.20042       -0.62428
C         -0.17190       -8.60529        4.42147
C         -0.85861      -14.34533       -0.00433
C         -2.62313       -8.93994        2.39431
C         -1.83789      -13.63538       -5.39349
C         -0.33876      -11.65756       -5.05686
C          1.59479       -6.12885        4.82319
C         -0.83293       -7.82298       -4.46906
C         -1.14209      -16.52659       -0.97537
C         -0.63136       -9.71995        5.42227
C         -3.49403       -7.77359        1.85347
C         -0.83073      -12.84138        0.34338
C          2.32858       -6.72731        6.07264
C          3.69847       -4.04672       -0.81906
C         -0.14837       -8.76741        2.88185
C         -4.97618       -7.80114        2.30665
C          5.29652       -5.50557        0.77591
C          2.24649       -6.03781        7.46096
C          0.06158       -6.14509        4.89761
C         -3.19505      -10.38265        2.24424
C          3.18025       -5.67409        2.16394
C         -2.06247       -9.64344        5.98105
C         -0.30457      -11.11706        4.88190
C          2.83101       -4.61119        3.21886
C         -3.37478      -11.12828       -0.31745
C          0.40116      -12.52399        1.20814
C         -1.86383       -7.03020       -4.78980
C         -0.88810       -8.71731        0.59145
C          4.20731       -2.73110       -0.23057
C         -5.13422       -7.69218        3.83138
C         -5.73854       -6.64936        1.63626
C         -1.98965      -11.02598       -0.96552
C          0.82047       -6.01717        8.03398
C          3.15979       -6.78482        8.44680
C          1.90800       -3.64080        5.24565
C          5.42184       -6.11297        3.13283
C         -4.39673      -10.13480       -0.88718
C         -3.22252       -7.27097       -4.20704
H          3.27151      -12.62009       -1.01253
H          1.79025      -14.00912       -1.98807
H          3.99775       -8.38743       -2.87656
H          5.04313      -11.49157        0.27405
H          1.87491       -9.37137       -3.61828
H          3.15049      -14.69999       -0.14211
H          1.66025      -15.60958       -0.32859
H          2.58465       -7.18118       -4.54970
H         -1.74382      -15.02436       -3.06011
H          2.87236      -17.60099       -1.16824
H         -1.47735      -12.72903       -2.82051
H          0.34244      -12.85781       -2.81156
H          0.53681       -6.78755       -5.78154
H          0.83343       -8.53731       -5.59100
H          7.30157      -11.15064       -0.26274
H          7.19779      -11.94168       -1.83005
H          6.32797      -10.36274       -1.53700
H          5.00656      -13.92259        0.55031
H          6.21075      -14.08132       -0.81166
H          6.64411      -13.27164        0.73483
H          0.30875      -13.70569       -5.11086
H          5.07686      -12.87612       -4.68213
H          5.95813      -11.94645       -3.50524
H          6.25940      -13.72518       -3.60407
H          1.19093       -5.15746       -4.09232
H          0.38309       -5.99779       -2.71746
H          2.13467       -5.59699       -2.66560
H          2.05043       -9.48422        0.18370
H          3.80249       -9.24305        0.55583
H          3.05436      -10.88191        0.38108
H          1.75077      -17.94216       -3.25560
H          2.19662      -16.98056       -4.72036
H          3.32301      -17.12554       -3.34573
H          5.31899      -17.80512       -0.90957
H          5.01402      -16.47403       -2.06223
H          5.45254      -16.11495       -0.35675
H          2.26471      -17.34345        1.20428
H          3.80460      -18.24838        1.01961
H          3.83515      -16.51782        1.53800
H          5.03745       -6.63060       -2.15200
H          5.60214       -4.79989       -1.16852
H          0.61444       -9.52627       -1.91501
H          0.90917       -8.63478        4.63214
H         -2.63678       -8.75026        3.46945
H          1.81745       -6.83820        4.03883
H         -2.72628      -13.08774       -5.01192
H         -1.76565      -13.47525       -6.49047
H         -1.98801      -14.72185       -5.23857
H          0.60758      -11.28856       -4.60764
H         -0.26601      -11.52812       -6.15777
H         -1.17888      -11.03583       -4.67960
H         -0.99998       -8.64647       -3.78685
H         -0.32643      -16.98655       -0.37640
H         -2.10905      -16.65673       -0.44147
H         -1.24741      -17.12331       -1.90267
H         -0.01924       -9.56591        6.34262
H         -3.03064       -6.81471        2.17754
H         -3.48859       -7.74967        0.75897
H         -1.69993      -12.72783        1.00159
H          1.99750       -7.77204        6.22965
H          3.40291       -6.77875        5.79819
H          3.56683       -3.88651       -1.91123
H          2.69109       -4.26456       -0.43280
H         -5.44148       -8.75261        1.96741
H          2.64292       -5.00633        7.40137
H         -1.71426       -7.16309        4.75145
H          2.65405       -5.37722        1.26487
H          2.84087       -6.69824        2.36157
H         -0.04977      -11.65733       -1.21096
H         -2.85100       -9.82670        5.25424
H         -2.18848      -10.41353        6.77220
H         -2.24221       -8.65842        6.45967
H          0.77219      -11.18520        4.61702
H         -0.52187      -11.89044        5.64893
H         -0.90759      -11.33490        3.97652
H         -3.73719      -12.11899       -0.68055
H          0.36095      -11.47554        1.56766
H          0.44869      -13.17940        2.10355
H          1.32919      -12.66676        0.61571
H         -1.72697       -6.19905       -5.47582
H         -1.77924       -8.68217       -0.04330
H         -0.35580       -7.75833        0.40995
H         -0.22958       -9.54834        0.28982
H          5.17433       -2.44704       -0.69751
H          3.47032       -1.92422       -0.42728
H          4.35685       -2.81892        0.86151
H         -3.84301      -12.10674        1.42903
H         -4.67067       -6.75512        4.20797
H         -6.21140       -7.69189        4.10309
H         -4.67560       -8.55656        4.34773
H         -5.67589       -6.73744        0.53038
H         -6.81227       -6.68031        1.92009
H         -5.31641       -5.66734        1.94095
H          0.41648       -7.04926        8.11739
H          0.82310       -5.55378        9.04365
H          0.13478       -5.41563        7.41371
H          4.20878       -6.78245        8.08040
H          3.14619       -6.28715        9.44022
H          2.82950       -7.83876        8.57308
H          2.88059       -3.22143        5.58182
H          1.35582       -2.86587        4.67136
H          1.29417       -3.85769        6.13620
H          5.99040       -7.04508        2.92601
H          6.13070       -5.29461        3.38294
H          4.79210       -6.30098        4.02485
H         -4.11513       -9.09295       -0.69733
H         -4.47243      -10.25694       -1.98933
H         -5.40048      -10.32804       -0.45235
H         -3.93600       -6.51219       -4.59069
H         -3.58362       -8.28187       -4.49211
H         -3.17839       -7.19663       -3.09949
